[
  {
    "material_id": "mp-3799",
    "formula": "GdSF",
    "formation_energy_per_atom": -3.292370790937499,
    "band_gap": 0.0,
    "density": 6.864023280839161,
    "energy_above_hull": 0.0,
    "volume": 100.7900264777971,
    "structure": {
      "@module": "pymatgen.core.structure",
      "@class": "Structure",
      "charge": 0,
      "lattice": {
        "matrix": [
          [
            3.83342101,
            -0.0,
            -0.0
          ],
          [
            0.0,
            3.83342101,
            -0.0
          ],
          [
            -0.0,
            -0.0,
            6.85874287
          ]
        ],
        "pbc": [
          true,
          true,
          true
        ],
        "a": 3.83342101,
        "b": 3.83342101,
        "c": 6.85874287,
        "alpha": 90.0,
        "beta": 90.0,
        "gamma": 90.0,
        "volume": 100.7900264777971
      },
      "properties": {},
      "sites": [
        {
          "species": [
            {
              "element": "Gd",
              "occu": 1
            }
          ],
          "abc": [
            0.75,
            0.75,
            0.77131187
          ],
          "properties": {
            "magmom": 6.89
          },
          "label": "Gd",
          "xyz": [
            2.8750657575,
            2.8750657575,
            5.290229788908867
          ]
        },
        {
          "species": [
            {
              "element": "Gd",
              "occu": 1
            }
          ],
          "abc": [
            0.25,
            0.25,
            0.22868813000000002
          ],
          "properties": {
            "magmom": 6.89
          },
          "label": "Gd",
          "xyz": [
            0.9583552525,
            0.9583552525,
            1.5685130810911334
          ]
        },
        {
          "species": [
            {
              "element": "S",
              "occu": 1
            }
          ],
          "abc": [
            0.25,
            0.25,
            0.64665171
          ],
          "properties": {
            "magmom": -0.04
          },
          "label": "S",
          "xyz": [
            0.9583552525,
            0.9583552525,
            4.435217805335808
          ]
        },
        {
          "species": [
            {
              "element": "S",
              "occu": 1
            }
          ],
          "abc": [
            0.75,
            0.75,
            0.35334829
          ],
          "properties": {
            "magmom": -0.04
          },
          "label": "S",
          "xyz": [
            2.8750657575,
            2.8750657575,
            2.4235250646641924
          ]
        },
        {
          "species": [
            {
              "element": "F",
              "occu": 1
            }
          ],
          "abc": [
            0.25,
            0.75,
            0.0
          ],
          "properties": {
            "magmom": -0.009000000000000001
          },
          "label": "F",
          "xyz": [
            0.9583552525,
            2.8750657575,
            0.0
          ]
        },
        {
          "species": [
            {
              "element": "F",
              "occu": 1
            }
          ],
          "abc": [
            0.75,
            0.25,
            0.0
          ],
          "properties": {
            "magmom": -0.009000000000000001
          },
          "label": "F",
          "xyz": [
            2.8750657575,
            0.9583552525,
            0.0
          ]
        }
      ]
    }
  },
  {
    "material_id": "mp-22862",
    "formula": "NaCl",
    "formation_energy_per_atom": -2.03840117125,
    "band_gap": 5.0037,
    "density": 2.224545046937431,
    "energy_above_hull": 0.0,
    "volume": 43.625325465502776,
    "structure": {
      "@module": "pymatgen.core.structure",
      "@class": "Structure",
      "charge": 0,
      "lattice": {
        "matrix": [
          [
            3.422015,
            0.0,
            1.9757019999999992
          ],
          [
            1.140671,
            3.226306,
            1.9757019999999992
          ],
          [
            0.0,
            0.0,
            3.951402
          ]
        ],
        "pbc": [
          true,
          true,
          true
        ],
        "a": 3.9514029221314546,
        "b": 3.9514021724801687,
        "c": 3.951402,
        "alpha": 59.999984700652746,
        "beta": 59.999990976469185,
        "gamma": 59.99999737523848,
        "volume": 43.625325465502776
      },
      "properties": {},
      "sites": [
        {
          "species": [
            {
              "element": "Na",
              "occu": 1
            }
          ],
          "abc": [
            0.0,
            0.0,
            0.0
          ],
          "properties": {
            "magmom": -0.0
          },
          "label": "Na",
          "xyz": [
            0.0,
            0.0,
            0.0
          ]
        },
        {
          "species": [
            {
              "element": "Cl",
              "occu": 1
            }
          ],
          "abc": [
            0.5,
            0.5,
            0.5
          ],
          "properties": {
            "magmom": 0.0
          },
          "label": "Cl",
          "xyz": [
            2.281343,
            1.613153,
            3.951402999999999
          ]
        }
      ]
    }
  }
]