[
  {
    "material_id": "mp-12487",
    "formula": "CsDyCdTe3",
    "formation_energy_per_atom": -1.2834591277203051,
    "band_gap": 1.5476,
    "density": 5.586796687178349,
    "energy_above_hull": 0.0,
    "volume": 469.9829181504342,
    "structure": {
      "@module": "pymatgen.core.structure",
      "@class": "Structure",
      "charge": 0,
      "lattice": {
        "matrix": [
          [
            4.547226,
            0.0,
            0.0
          ],
          [
            -2.273613,
            8.693397,
            0.0
          ],
          [
            0.0,
            0.0,
            11.889019
          ]
        ],
        "pbc": [
          true,
          true,
          true
        ],
        "a": 4.547226,
        "b": 8.985792534516808,
        "c": 11.889019,
        "alpha": 90.0,
        "beta": 90.0,
        "gamma": 104.65647551394136,
        "volume": 469.9829181504342
      },
      "properties": {},
      "sites": [
        {
          "species": [
            {
              "element": "Cs",
              "occu": 1
            }
          ],
          "abc": [
            0.750996,
            0.501992,
            0.25
          ],
          "properties": {
            "magmom": -0.0
          },
          "label": "Cs",
          "xyz": [
            2.273613,
            4.364015746823999,
            2.97225475
          ]
        },
        {
          "species": [
            {
              "element": "Cs",
              "occu": 1
            }
          ],
          "abc": [
            0.24900399999999903,
            0.49800799999999906,
            0.75
          ],
          "properties": {
            "magmom": -0.0
          },
          "label": "Cs",
          "xyz": [
            -2.4424906541753444e-15,
            4.329381253175991,
            8.91676425
          ]
        },
        {
          "species": [
            {
              "element": "Dy",
              "occu": 1
            }
          ],
          "abc": [
            0.0,
            0.0,
            0.5
          ],
          "properties": {
            "magmom": -0.0
          },
          "label": "Dy",
          "xyz": [
            0.0,
            0.0,
            5.9445095
          ]
        },
        {
          "species": [
            {
              "element": "Dy",
              "occu": 1
            }
          ],
          "abc": [
            0.0,
            0.0,
            0.0
          ],
          "properties": {
            "magmom": -0.0
          },
          "label": "Dy",
          "xyz": [
            0.0,
            0.0,
            0.0
          ]
        },
        {
          "species": [
            {
              "element": "Cd",
              "occu": 1
            }
          ],
          "abc": [
            0.463092,
            0.926184,
            0.25
          ],
          "properties": {
            "magmom": 0.0
          },
          "label": "Cd",
          "xyz": [
            0.0,
            8.051685207048,
            2.97225475
          ]
        },
        {
          "species": [
            {
              "element": "Cd",
              "occu": 1
            }
          ],
          "abc": [
            0.536907999999999,
            0.07381599999999901,
            0.75
          ],
          "properties": {
            "magmom": 0.0
          },
          "label": "Cd",
          "xyz": [
            2.273612999999998,
            0.6417117929519913,
            8.91676425
          ]
        },
        {
          "species": [
            {
              "element": "Te",
              "occu": 1
            }
          ],
          "abc": [
            0.619804999999999,
            0.23961000000000002,
            0.546439
          ],
          "properties": {
            "magmom": 0.0
          },
          "label": "Te",
          "xyz": [
            2.2736129999999957,
            2.08302485517,
            6.496623653341
          ]
        },
        {
          "species": [
            {
              "element": "Te",
              "occu": 1
            }
          ],
          "abc": [
            0.380195,
            0.76039,
            0.453561
          ],
          "properties": {
            "magmom": 0.0
          },
          "label": "Te",
          "xyz": [
            0.0,
            6.6103721448299995,
            5.392395346659
          ]
        },
        {
          "species": [
            {
              "element": "Te",
              "occu": 1
            }
          ],
          "abc": [
            0.380195,
            0.76039,
            0.046439
          ],
          "properties": {
            "magmom": 0.0
          },
          "label": "Te",
          "xyz": [
            0.0,
            6.6103721448299995,
            0.552114153341
          ]
        },
        {
          "species": [
            {
              "element": "Te",
              "occu": 1
            }
          ],
          "abc": [
            0.619804999999999,
            0.23961000000000002,
            0.953561
          ],
          "properties": {
            "magmom": 0.0
          },
          "label": "Te",
          "xyz": [
            2.2736129999999957,
            2.08302485517,
            11.336904846659
          ]
        },
        {
          "species": [
            {
              "element": "Te",
              "occu": 1
            }
          ],
          "abc": [
            0.065245,
            0.13049000000000002,
            0.25
          ],
          "properties": {
            "magmom": 0.0
          },
          "label": "Te",
          "xyz": [
            -5.551115123125783e-17,
            1.1344013745300001,
            2.97225475
          ]
        },
        {
          "species": [
            {
              "element": "Te",
              "occu": 1
            }
          ],
          "abc": [
            0.934755,
            0.8695100000000001,
            0.75
          ],
          "properties": {
            "magmom": -0.0
          },
          "label": "Te",
          "xyz": [
            2.273613,
            7.558995625470001,
            8.91676425
          ]
        }
      ]
    }
  },
  {
    "material_id": "mp-3799",
    "formula": "GdSF",
    "formation_energy_per_atom": -3.292370790937499,
    "band_gap": 0.0,
    "density": 6.864023280839161,
    "energy_above_hull": 0.0,
    "volume": 100.7900264777971,
    "structure": {
      "@module": "pymatgen.core.structure",
      "@class": "Structure",
      "charge": 0,
      "lattice": {
        "matrix": [
          [
            3.83342101,
            -0.0,
            -0.0
          ],
          [
            0.0,
            3.83342101,
            -0.0
          ],
          [
            -0.0,
            -0.0,
            6.85874287
          ]
        ],
        "pbc": [
          true,
          true,
          true
        ],
        "a": 3.83342101,
        "b": 3.83342101,
        "c": 6.85874287,
        "alpha": 90.0,
        "beta": 90.0,
        "gamma": 90.0,
        "volume": 100.7900264777971
      },
      "properties": {},
      "sites": [
        {
          "species": [
            {
              "element": "Gd",
              "occu": 1
            }
          ],
          "abc": [
            0.75,
            0.75,
            0.77131187
          ],
          "properties": {
            "magmom": 6.89
          },
          "label": "Gd",
          "xyz": [
            2.8750657575,
            2.8750657575,
            5.290229788908867
          ]
        },
        {
          "species": [
            {
              "element": "Gd",
              "occu": 1
            }
          ],
          "abc": [
            0.25,
            0.25,
            0.22868813000000002
          ],
          "properties": {
            "magmom": 6.89
          },
          "label": "Gd",
          "xyz": [
            0.9583552525,
            0.9583552525,
            1.5685130810911334
          ]
        },
        {
          "species": [
            {
              "element": "S",
              "occu": 1
            }
          ],
          "abc": [
            0.25,
            0.25,
            0.64665171
          ],
          "properties": {
            "magmom": -0.04
          },
          "label": "S",
          "xyz": [
            0.9583552525,
            0.9583552525,
            4.435217805335808
          ]
        },
        {
          "species": [
            {
              "element": "S",
              "occu": 1
            }
          ],
          "abc": [
            0.75,
            0.75,
            0.35334829
          ],
          "properties": {
            "magmom": -0.04
          },
          "label": "S",
          "xyz": [
            2.8750657575,
            2.8750657575,
            2.4235250646641924
          ]
        },
        {
          "species": [
            {
              "element": "F",
              "occu": 1
            }
          ],
          "abc": [
            0.25,
            0.75,
            0.0
          ],
          "properties": {
            "magmom": -0.009000000000000001
          },
          "label": "F",
          "xyz": [
            0.9583552525,
            2.8750657575,
            0.0
          ]
        },
        {
          "species": [
            {
              "element": "F",
              "occu": 1
            }
          ],
          "abc": [
            0.75,
            0.25,
            0.0
          ],
          "properties": {
            "magmom": -0.009000000000000001
          },
          "label": "F",
          "xyz": [
            2.8750657575,
            0.9583552525,
            0.0
          ]
        }
      ]
    }
  }
]